/*--------------------------------*- C++ -*----------------------------------*\
  =========                 |
  \\      /  F ield         | OpenFOAM: The Open Source CFD Toolbox
   \\    /   O peration     | Website:  https://openfoam.org
    \\  /    A nd           | Version:  8
     \\/     M anipulation  |
\*---------------------------------------------------------------------------*/
FoamFile
{
    version     2.0;
    format      ascii;
    class       volScalarField;
    object      k;
}

dimensions      [0 0 -1 0 0 0 0];

internalField   uniform 1;

boundaryField
{
    quad
    {
        type            omegaWallFunction;
        value           uniform 1e2;
    }

    "(front|back|left|right)"
    {
        type            slip;
    }
    top
    {
        type            fixedValue;
        value           $internalField;
    }
    bottom
    {
        type            inletOutlet;
        inletValue      $internalField;
        value           $internalField;
    }

    "proc.*"{
        type processor;
    }
}


